# ODT 1.0
# Table Start
# Title: mmArchive Data Table, Mon Jun 08 21:49:20 EDT 2020
# Columns: {Anv_SpinTEvolve:evolver:Total energy} {Anv_SpinTEvolve:evolver:Energy calc count} {Anv_SpinTEvolve:evolver:Max dm/dt} Anv_SpinTEvolve:evolver:dE/dt {Anv_SpinTEvolve:evolver:Delta E} {Anv_SpinTEvolve:evolver:average u} Oxs_UniformExchange:HeisenbergEx:Energy {Oxs_UniformExchange:HeisenbergEx:Max Spin Ang} {Oxs_UniformExchange:HeisenbergEx:Stage Max Spin Ang} {Oxs_UniformExchange:HeisenbergEx:Run Max Spin Ang} Oxs_DMExchange6Ngbr:DMEx:Energy Oxs_UniaxialAnisotropy:Anisotropy:Energy Oxs_TimeDriver::Iteration {Oxs_TimeDriver::Stage iteration} Oxs_TimeDriver::Stage Oxs_TimeDriver::mx   Oxs_TimeDriver::my   Oxs_TimeDriver::mz   {Oxs_TimeDriver::Last time step} {Oxs_TimeDriver::Simulation time}
# Units:                     J                                        {}                                    deg/ns                             J/s                              J                                 m/s                                    J                                          deg                                                deg                                                  deg                                        J                                   J                                {}                            {}                          {}                   {}                   {}                   {}                          s                                 s                
                    -7.0139924356192777e-19                      961                                     1090.1861399741695               8.2601039419574224e-11             1.3616040026129885e-23                100                                   8.5460936337690157e-19                         21.26433549661256                                  21.308841647205586                                   21.308841647205586                       -2.4766522235956221e-18                  9.2064361665679273e-19              157                           157                         0                    -0.00058793182559875839  0.0014518433625582759 -0.96186855831665752        1.6408428874161516e-13              5.0000000000000002e-11       
                    -7.0134235742746283e-19                      1916                                    1058.6721327633534              -2.8439033722219314e-11            -2.3733043633285844e-24                100                                   8.5491698008153789e-19                         21.217244901244868                                 21.278653342534962                                   21.308841647205586                       -2.4792628248746508e-18                  9.2300348736564982e-19              317                           159                         1                     0.00020437390709921507  0.0018257054117594674 -0.96158936897735492        8.3383436035553728e-14              1e-10                     
                    -7.0186113447678905e-19                      2871                                    1099.7613337906992              -2.2719174972562347e-11            -1.9559670471396895e-24                100                                   8.5545617011518863e-19                         21.255279881000909                                 21.269901006166908                                   21.308841647205586                       -2.4818566935043409e-18                  9.2453938891236345e-19              477                           159                         2                     0.00022498848813253268  0.001345526565237715 -0.96148726500194948        8.5109981017410955e-14              1.5e-10                   
                    -7.0242097470348697e-19                      3826                                    1168.2398268397728              -9.7483224590394019e-12            -8.9849677553009097e-25                100                                   8.5251527397565734e-19                         21.268318983412303                                 21.268318983412303                                   21.308841647205586                       -2.4759852756795206e-18                  9.210490270003764e-19              637                           159                         3                     1.3862692056898976e-05  0.0013545851537850942 -0.96188999829127686        9.0530739156953577e-14              2.0000000000000001e-10       
                    -7.0298133774386839e-19                      4781                                    1107.2994645142878              -7.4412247752509096e-12            -7.8300619654131494e-25                100                                   8.4761102680072394e-19                         21.191248767999522                                 21.276641786665849                                   21.308841647205586                       -2.4652495964932721e-18                  9.1465723194867955e-19              797                           159                         4                     3.8280813753210581e-05  0.0014761085331023843 -0.96256485839241523        1.0362883409948652e-13              2.5000000000000002e-10       
                    -7.0321457124910854e-19                      5736                                    1053.2955413558666              -4.7372334095318958e-12            -4.9994246931781621e-25                100                                   8.448733236387118e-19                         21.284806880565458                                 21.29132329750869                                    21.308841647205586                       -2.4596410785316539e-18                  9.115531836438336e-19              957                           159                         5                     0.00010590389027702229  0.0014604243853111895 -0.96292526767892728        1.0308227602493964e-13              3e-10                     
                    -7.0328440034447152e-19                      6691                                    1081.7968865230321              -2.0888331494976101e-12            -2.0575727566067824e-25                100                                   8.4551374263399828e-19                         21.273468016157452                                 21.297230176427135                                   21.308841647205586                       -2.4614659250610786e-18                  9.1266778208260893e-19              1117                          159                         6                     0.00010329935354710505  0.0014496384258834015 -0.96281326964501701        9.3550556732120895e-14              3.4999999999999998e-10       
                    -7.0331629058331915e-19                      7646                                    1105.9016217701396              -1.4250987460806688e-12            -1.3932294493329241e-25                100                                   8.4795948942011471e-19                         21.13485597910115                                  21.296821627693173                                   21.308841647205586                       -2.4671734059763768e-18                  9.1589762597294271e-19              1277                          159                         7                     9.9546407896938108e-05  0.0014580851623720947 -0.9624464059185508         9.0854049633107207e-14              3.9999999999999996e-10       
                    -7.0334386545162347e-19                      8601                                    1084.0807611953799              -1.6605536804353345e-12            -1.6944430908215702e-25                100                                   8.5067404170432854e-19                         21.242158341273445                                 21.282401172352184                                   21.308841647205586                       -2.4734299523026673e-18                  9.194120451467155e-19              1437                          159                         8                     0.00010677952806804935  0.00146181609228725 -0.96204215992365483        9.5688025385963251e-14              4.4999999999999995e-10       
                    -7.0336864407657044e-19                      9556                                    1078.9939135219756              -1.6712908852164223e-12            -1.6768486508982127e-25                100                                   8.5283790672759012e-19                         21.197539556769648                                 21.27983743703593                                    21.308841647205586                       -2.4784357357378032e-18                  9.2222918493364278e-19              1597                          159                         9                     0.00011007056316552758  0.0014608300845093574 -0.96171779944820857        9.402306143116273e-14              4.9999999999999993e-10       
                    -7.0338834414824409e-19                      10511                                   1061.3363439387113              -1.4521802405481271e-12            -1.5152662825295975e-25                100                                   8.5422975407105081e-19                         21.208788744371422                                 21.28098760163255                                    21.308841647205586                       -2.4816930972147367e-18                  9.2407499899544191e-19              1757                          159                         10                    0.00011033274951665767  0.0014609074416890621 -0.96150569055030044        9.7041227806460855e-14              5.4999999999999996e-10       
                    -7.0340417217545461e-19                      11466                                   1066.1654346108357              -1.3903449603375e-12            -1.4119938384323253e-25                100                                   8.5496147797904046e-19                         21.201761481909653                                 21.263596220457522                                   21.308841647205586                       -2.4834556377407332e-18                  9.2508998758623814e-19              1917                          159                         11                    0.00011098922778830541  0.0014619066975524186 -0.96139050520004665        9.4268111172287605e-14              6e-10                     
                    -7.0341805832185281e-19                      12421                                   1050.3526944861574              -1.3805835680467842e-12            -1.4320066377629658e-25                100                                   8.552577240029061e-19                         21.258480665910518                                 21.270326934013312                                   21.308841647205586                       -2.4842326004984232e-18                  9.2555681817366395e-19              2077                          159                         12                    0.00011157510015649653  0.0014624467572950058 -0.9613397822954215         9.6117803581978759e-14              6.5000000000000003e-10       
                    -7.0343077391341235e-19                      13376                                   1050.2058155772238              -1.3808120111089791e-12            -1.4191205529562206e-25                100                                   8.5533005602698195e-19                         21.195993715479311                                 21.268558047854864                                   21.308841647205586                       -2.4844992532133114e-18                  9.257384232729169e-19              2237                          159                         13                    0.00011165985687415084  0.0014628173009931065 -0.96132244406257017        9.5169659732597633e-14              7.0000000000000006e-10       
                    -7.0344233997343206e-19                      14331                                   1060.9354755670381              -1.3226119527779189e-12            -1.3752647865847347e-25                100                                   8.5532712354941059e-19                         21.2151894258071                                   21.251035207649441                                   21.308841647205586                       -2.4845885951072386e-18                  9.2581913158439608e-19              2397                          159                         14                    0.00011158477214235622  0.001463325244201283 -0.96131663833322956        9.6111894034006651e-14              7.500000000000001e-10       
                    -7.0345261981972538e-19                      15286                                   1070.0669441328064              -1.3172686084583052e-12            -1.3497718951977481e-25                100                                   8.553312766281948e-19                         21.151709747744857                                 21.25611173224798                                    21.308841647205586                       -2.4846857274412709e-18                  9.2590183099335075e-19              2557                          159                         15                    0.00011154022189343351  0.0014638414696672374 -0.96131030084482572        9.4642666253789554e-14              8.0000000000000013e-10       
                    -7.034618786721811e-19                      16241                                   1045.0852275719847              -1.2810026069274761e-12            -1.3620451614636962e-25                100                                   8.5537473648556632e-19                         21.149796541043077                                 21.253852671840448                                   21.308841647205586                       -2.4848639491532512e-18                  9.26027333995504e-19              2717                          159                         16                    0.00011149426500456536  0.0014642992152432246 -0.9612986515885803         9.7938647027657395e-14              8.5000000000000017e-10       
                    -7.0347030188406162e-19                      17196                                   1048.7984283102962              -1.2877724228551335e-12            -1.3249887000844871e-25                100                                   8.5545911020183851e-19                         21.223036493804216                                 21.243031582077574                                   21.308841647205586                       -2.4851275723979943e-18                  9.2619816031209413e-19              2877                          159                         17                    0.00011143945970128388  0.0014647151991023755 -0.96128140411554963        9.4834911364639345e-14              9.000000000000002e-10       
                    -7.0347791980848094e-19                      18151                                   1051.5021927244243              -1.2363163632706696e-12            -1.2973610938946741e-25                100                                   8.5557194895543403e-19                         21.161450417394033                                 21.24036161461661                                    21.308841647205586                       -2.4854489331659664e-18                  9.2639906440205141e-19              3037                          159                         18                    0.0001114033461392787  0.0014650818406408785 -0.96126039629238003        9.6544130454595081e-14              9.5000000000000023e-10       
                    -7.0348468584684608e-19                      19106                                   1052.3963297187024              -1.2237791751476323e-12            -1.2682689371076642e-25                100                                   8.5569835543581489e-19                         21.227361755554135                                 21.245645979582228                                   21.308841647205586                       -2.4857946148506181e-18                  9.266115735679573e-19              3197                          159                         19                    0.00011139199097478969  0.0014653885833728919 -0.96123782981165207        9.5319280142679942e-14              1.0000000000000003e-09       
                    -7.034907515587005e-19                      20061                                   1044.0913155300595              -1.2306960507325829e-12            -1.2737306652852066e-25                100                                   8.558260873796002e-19                         21.206462111293604                                 21.247081264013129                                   21.308841647205586                       -2.4861377841595984e-18                  9.2682094522129758e-19              3357                          159                         20                    0.00011140425530690899  0.0014656436097125118 -0.96121543593816616        9.5113681233467687e-14              1.0500000000000003e-09       
                    -7.0349622722304002e-19                      21016                                   1050.6198661472263              -1.2227674678409695e-12            -1.2616386073217905e-25                100                                   8.5594687142071933e-19                         21.192416074910334                                 21.234442200886775                                   21.308841647205586                       -2.4864604576487291e-18                  9.2701735900496976e-19              3517                          159                         21                    0.00011144490989064852  0.0014658593445954842 -0.96119436686951432        9.4766401359472448e-14              1.1000000000000003e-09       
                    -7.035011312631907e-19                      21971                                   1049.7633523614084              -1.1795031249925899e-12            -1.233224291393133e-25                100                                   8.5605619055819285e-19                         21.208085326774686                                 21.252601758875432                                   21.308841647205586                       -2.4867527339510182e-18                  9.2719541212963449e-19              3677                          159                         22                    0.00011151336142708957  0.0014660442554388696 -0.96117526499486272        9.5902844173304227e-14              1.1500000000000004e-09       
                    -7.0350547481541527e-19                      22926                                   1058.0334038847091              -1.1974606722818587e-12            -1.2215063390727234e-25                100                                   8.5615251728813537e-19                         21.175289510947266                                 21.254239275579625                                   21.308841647205586                       -2.487011387287314e-18                  9.2735339518376316e-19              3837                          159                         23                    0.00011160148016928329  0.0014662087865638341 -0.96115833968803954        9.36286609516159e-14              1.2000000000000004e-09       
                    -7.0350939870425119e-19                      23881                                   1035.739853340159               -1.1844632117243593e-12            -1.243948678901876e-25                100                                   8.5623605664232311e-19                         21.233639440763366                                 21.249217857475699                                   21.308841647205586                       -2.4872373904803485e-18                  9.2749193513377422e-19              3997                          159                         24                    0.00011170104174577908  0.0014663644699192155 -0.96114352725303487        9.618248416724738e-14              1.2500000000000004e-09       
                    -7.0351292451205298e-19                      24836                                   1045.8520935552672              -1.1842083777800358e-12            -1.224496627430611e-25                100                                   8.5630797026533818e-19                         21.064226280007915                                 21.253663308384148                                   21.308841647205586                       -2.4874336082418202e-18                  9.2761271346442902e-19              4157                          159                         25                    0.00011180341852794608  0.0014665178744950034 -0.96113064908742563        9.4733812542625571e-14              1.3000000000000005e-09       
                    -7.0351608952348024e-19                      25791                                   1049.3476434376814              -1.1552559597037072e-12            -1.2076700245098103e-25                100                                   8.5636981694785771e-19                         21.201192696467249                                 21.256527629684044                                   21.308841647205586                       -2.487603846010411e-18                  9.2771793953907302e-19              4317                          159                         26                    0.00011189675933476184  0.0014666707055455597 -0.96111946650700664        9.5674376002052255e-14              1.3500000000000005e-09       
                    -7.0351890492750071e-19                      26746                                   1057.1730111239649              -1.1716412129414438e-12            -1.2110561038763539e-25                100                                   8.564233363845608e-19                         21.202683825854113                                 21.2508058869401                                     21.308841647205586                       -2.4877523498336846e-18                  9.2781010852162327e-19              4477                          159                         27                    0.00011197063232545795  0.0014668225331954153 -0.96110970367441528        9.4617212172579216e-14              1.4000000000000005e-09       
                    -7.0352145398912731e-19                      27701                                   1038.6430132281469              -1.1637833513849258e-12            -1.236563548473022e-25                100                                   8.5647004406311492e-19                         21.122382074835443                                 21.246932557405405                                   21.308841647205586                       -2.4878830437969649e-18                  9.278915457447227e-19              4637                          159                         28                    0.00011202054915911257  0.0014669702053723812 -0.96110110269749116        9.7069335157324067e-14              1.4500000000000006e-09       
                    -7.0352374322383111e-19                      28656                                   1046.3002334533121              -1.1619350491928936e-12            -1.2098832304194264e-25                100                                   8.5651126129391476e-19                         21.239254878806772                                 21.250673977253083                                   21.308841647205586                       -2.4879991360676318e-18                  9.2796413154988588e-19              4797                          159                         29                    0.00011204629982078526  0.0014671079946105608 -0.9610934565252125         9.5205744885430974e-14              1.5000000000000006e-09       
                    -7.0352580050734235e-19                      29611                                   1059.0521049606261              -1.1485036661651423e-12            -1.1946525970610357e-25                100                                   8.5654806800728157e-19                         21.1987816527982                                   21.24387952129678                                    21.308841647205586                       -2.4881032761111983e-18                  9.2802940759657472e-19              4957                          159                         30                    0.00011205026328826315  0.0014672309582995111 -0.96108659645377759        9.5085917303882119e-14              1.5500000000000006e-09       
                    -7.0352765372655124e-19                      30566                                   1051.2319780487041              -1.1334941307229347e-12            -1.1962682216447151e-25                100                                   8.565813441462712e-19                         21.195298815537221                                 21.234991704519302                                   21.308841647205586                       -2.488197619798833e-18                  9.2808862192601037e-19              5117                          159                         31                    0.00011203817971294437  0.0014673359385735858 -0.96108038430056497        9.6368341524818646e-14              1.6000000000000007e-09       
                    -7.0352930476038358e-19                      31521                                   1039.444217845409               -1.1633141459110211e-12            -1.2101232539952164e-25                100                                   8.5661174674170746e-19                         21.156041154393865                                 21.244711809224142                                   21.308841647205586                       -2.4882837283145468e-18                  9.2814267681245579e-19              5277                          159                         32                    0.00011201837532633708  0.0014674210878774078 -0.961074719720864          9.5037244505545975e-14              1.6500000000000007e-09       
                    -7.0353081511863748e-19                      32476                                   1046.5724350617375              -1.1353964959911598e-12            -1.2007451587801178e-25                100                                   8.5663964601472839e-19                         21.173958165206127                                 21.244605865704987                                   21.308841647205586                       -2.4883626464623731e-18                  9.2819218532900728e-19              5437                          159                         33                    0.00011199896965570863  0.0014674868221186226 -0.96106953488559221        9.6506269780215413e-14              1.7000000000000007e-09       
                    -7.0353216409684815e-19                      33431                                   1056.8002615415285              -1.1226365361410089e-12            -1.1691545326974094e-25                100                                   8.5666532387024408e-19                         21.225503557941387                                 21.234435229358137                                   21.308841647205586                       -2.4884350547990722e-18                  9.2823756683197964e-19              5597                          159                         34                    0.00011198652031991315  0.0014675359192066386 -0.96106478237164095        9.5104636794787653e-14              1.7500000000000008e-09       
                    -7.0353336758628659e-19                      34386                                   1046.0448737082793              -1.1320194145949608e-12            -1.1810954355287329e-25                100                                   8.5668887237853305e-19                         20.990672021918083                                 21.24558005296381                                    21.308841647205586                       -2.4885013157671261e-18                  9.2827907580230666e-19              5757                          159                         35                    0.00011198554373242777  0.0014675727045873922 -0.96106043372042316        9.5249602027726486e-14              1.8000000000000008e-09       
                    -7.0353445385727141e-19                      35341                                   1036.7598466927752              -1.1333488219517156e-12            -1.1915117983061807e-25                100                                   8.5671028160743196e-19                         21.223857088628538                                 21.247612184293779                                   21.308841647205586                       -2.4885615561025414e-18                  9.2831682063783775e-19              5917                          159                         36                    0.00011199761374075127  0.0014676021503101217 -0.96105647739469058        9.591612409558331e-14              1.8500000000000008e-09       
                    -7.0353542610897178e-19                      36296                                   1045.5323212178782              -1.1376262959014761e-12            -1.1787043751273226e-25                100                                   8.567295496766872e-19                         21.21161643598499                                  21.245307096301371                                   21.308841647205586                       -2.4886158577065748e-18                  9.2835088192091603e-19              6077                          159                         37                    0.00011202139974387402  0.0014676290364900914 -0.96105290703625967        9.459707451552818e-14              1.9000000000000009e-09       